Element,Symbol,Group,Acidity,State,Atomic Number,Atomic Weight,Valency,Octet,Density,Melting_Point,Boiling_Point,Electron_Configuration,Color,Electrical_Type
Einsteinium,Es,f,neutral,solid,99,252,3,2,,1133.15,,[Ar]3d104s1,,
,,,,,,,,,,1800.15,,[Rn]6d17s2,,
,,,,,,,,,,1100.15,,[Ar]3d104s24p2,,
,,,,,,,,,,1100.15,,[Rn]5f36d17s2,,
,,,,,,,,,,1900.15,,[Ar]3d104s24p5,,
,,,,,,,,,,,,[Rn]5f77s2,,
,,,,,,,,,,,,[Kr]5s2,,
,,,,,,,,,,,,[Rn]5f107s2,,
,,,,,,,,,,,,[Kr]4d45s1,,
,,,,,,,,,,,,[Rn]5f137s2,,
,,,,,,,,,,,,[Kr]4d75s1,,
,,,,,,,,,,,,[Rn]5f146d27s2,,
,,,,,,,,,,,,[Kr]4d105s1,,
,,,,,,,,,,,,[Rn]5f146d57s2,,
,,,,,,,,,,,,[Kr]4d105s25p2,,
,,,,,,,,,,,,[Rn]5f146d97s1,,
,,,,,,,,,,,,[Kr]4d105s25p5,,
,,,,,,,,,,,,[Rn]5f146d107s27p1,,
,,,,,,,,,,,,[Xe]6s2,,
,,,,,,,,,,,,[Rn]5f146d107s27p4,,